ANIMSTEPS       101
CRYSTAL
PRIMVEC
    17.18227     0.00000     0.00000
     0.00000    17.18227     0.00000
     0.00000     0.00000    17.18227
PRIMCOORD         1
       108         1
        18    -8.59113    -8.59113    -8.59113
        18    -8.59113    -5.72742    -5.72742
        18    -5.72742    -8.59113    -5.72742
        18    -5.72742    -5.72742    -8.59113
        18    -2.86371    -8.59113    -8.59113
        18    -2.86371    -5.72742    -5.72742
        18    0.00000    -8.59113    -5.72742
        18    0.00000    -5.72742    -8.59113
        18    2.86371    -8.59113    -8.59113
        18    2.86371    -5.72742    -5.72742
        18    5.72742    -8.59113    -5.72742
        18    5.72742    -5.72742    -8.59113
        18    -8.59113    -2.86371    -8.59113
        18    -8.59113    0.00000    -5.72742
        18    -5.72742    -2.86371    -5.72742
        18    -5.72742    0.00000    -8.59113
        18    -2.86371    -2.86371    -8.59113
        18    -2.86371    0.00000    -5.72742
        18    0.00000    -2.86371    -5.72742
        18    0.00000    0.00000    -8.59113
        18    2.86371    -2.86371    -8.59113
        18    2.86371    0.00000    -5.72742
        18    5.72742    -2.86371    -5.72742
        18    5.72742    0.00000    -8.59113
        18    -8.59113    2.86371    -8.59113
        18    -8.59113    5.72742    -5.72742
        18    -5.72742    2.86371    -5.72742
        18    -5.72742    5.72742    -8.59113
        18    -2.86371    2.86371    -8.59113
        18    -2.86371    5.72742    -5.72742
        18    0.00000    2.86371    -5.72742
        18    0.00000    5.72742    -8.59113
        18    2.86371    2.86371    -8.59113
        18    2.86371    5.72742    -5.72742
        18    5.72742    2.86371    -5.72742
        18    5.72742    5.72742    -8.59113
        18    -8.59113    -8.59113    -2.86371
        18    -8.59113    -5.72742    0.00000
        18    -5.72742    -8.59113    0.00000
        18    -5.72742    -5.72742    -2.86371
        18    -2.86371    -8.59113    -2.86371
        18    -2.86371    -5.72742    0.00000
        18    0.00000    -8.59113    0.00000
        18    0.00000    -5.72742    -2.86371
        18    2.86371    -8.59113    -2.86371
        18    2.86371    -5.72742    0.00000
        18    5.72742    -8.59113    0.00000
        18    5.72742    -5.72742    -2.86371
        18    -8.59113    -2.86371    -2.86371
        18    -8.59113    0.00000    0.00000
        18    -5.72742    -2.86371    0.00000
        18    -5.72742    0.00000    -2.86371
        18    -2.86371    -2.86371    -2.86371
        18    -2.86371    0.00000    0.00000
        18    0.00000    -2.86371    0.00000
        18    0.00000    0.00000    -2.86371
        18    2.86371    -2.86371    -2.86371
        18    2.86371    0.00000    0.00000
        18    5.72742    -2.86371    0.00000
        18    5.72742    0.00000    -2.86371
        18    -8.59113    2.86371    -2.86371
        18    -8.59113    5.72742    0.00000
        18    -5.72742    2.86371    0.00000
        18    -5.72742    5.72742    -2.86371
        18    -2.86371    2.86371    -2.86371
        18    -2.86371    5.72742    0.00000
        18    0.00000    2.86371    0.00000
        18    0.00000    5.72742    -2.86371
        18    2.86371    2.86371    -2.86371
        18    2.86371    5.72742    0.00000
        18    5.72742    2.86371    0.00000
        18    5.72742    5.72742    -2.86371
        18    -8.59113    -8.59113    2.86371
        18    -8.59113    -5.72742    5.72742
        18    -5.72742    -8.59113    5.72742
        18    -5.72742    -5.72742    2.86371
        18    -2.86371    -8.59113    2.86371
        18    -2.86371    -5.72742    5.72742
        18    0.00000    -8.59113    5.72742
        18    0.00000    -5.72742    2.86371
        18    2.86371    -8.59113    2.86371
        18    2.86371    -5.72742    5.72742
        18    5.72742    -8.59113    5.72742
        18    5.72742    -5.72742    2.86371
        18    -8.59113    -2.86371    2.86371
        18    -8.59113    0.00000    5.72742
        18    -5.72742    -2.86371    5.72742
        18    -5.72742    0.00000    2.86371
        18    -2.86371    -2.86371    2.86371
        18    -2.86371    0.00000    5.72742
        18    0.00000    -2.86371    5.72742
        18    0.00000    0.00000    2.86371
        18    2.86371    -2.86371    2.86371
        18    2.86371    0.00000    5.72742
        18    5.72742    -2.86371    5.72742
        18    5.72742    0.00000    2.86371
        18    -8.59113    2.86371    2.86371
        18    -8.59113    5.72742    5.72742
        18    -5.72742    2.86371    5.72742
        18    -5.72742    5.72742    2.86371
        18    -2.86371    2.86371    2.86371
        18    -2.86371    5.72742    5.72742
        18    0.00000    2.86371    5.72742
        18    0.00000    5.72742    2.86371
        18    2.86371    2.86371    2.86371
        18    2.86371    5.72742    5.72742
        18    5.72742    2.86371    5.72742
        18    5.72742    5.72742    2.86371
PRIMCOORD         2
       108         1
        18    -8.56562    -8.61579    -8.62391
        18    -8.56063    -5.72069    -5.73857
        18    -5.68526    -8.59415    -5.67694
        18    -5.67442    -5.73314    -8.54325
        18    -2.85011    -8.58091    -8.54770
        18    -2.84377    -5.69196    -5.70914
        18    -0.03043    -8.60252    -5.74936
        18    -0.02053    -5.73621    -8.58648
        18    2.85899    -8.58032    -8.57798
        18    2.82195    -5.75628    -5.74556
        18    5.69771    -8.61086    -5.74704
        18    5.72460    -5.75105    -8.57621
        18    -8.59430    -2.85424    -8.62334
        18    -8.57527    -0.03402    -5.71283
        18    -5.74319    -2.84041    -5.72491
        18    -5.73988    0.00026    -8.55863
        18    -2.87465    -2.84227    -8.58607
        18    -2.85678    -0.03035    -5.75505
        18    -0.01144    -2.83766    -5.72442
        18    -0.01137    -0.02470    -8.58159
        18    2.86351    -2.86286    -8.58761
        18    2.87043    -0.03789    -5.77321
        18    5.71467    -2.85640    -5.69289
        18    5.72261    -0.02161    -8.63154
        18    -8.57658    2.86794    -8.61375
        18    -8.61345    5.68321    -5.73975
        18    -5.71185    2.81123    -5.76074
        18    -5.74819    5.75559    -8.62864
        18    -2.85197    2.91574    -8.61304
        18    -2.85123    5.71231    -5.71429
        18    -0.03113    2.85802    -5.73181
        18    -0.01075    5.72017    -8.58837
        18    2.93526    2.90478    -8.58893
        18    2.80889    5.70799    -5.76208
        18    5.71970    2.89337    -5.68513
        18    5.70229    5.76328    -8.60113
        18    -8.57766    -8.55188    -2.84812
        18    -8.58428    -5.72572    -0.01219
        18    -5.70734    -8.66816    0.01452
        18    -5.77526    -5.71965    -2.88566
        18    -2.85354    -8.58148    -2.86489
        18    -2.88041    -5.65728    -0.03207
        18    0.00631    -8.61746    -0.01969
        18    0.01332    -5.75986    -2.83375
        18    2.87714    -8.59210    -2.89708
        18    2.87309    -5.70239    0.03023
        18    5.75111    -8.59182    0.00418
        18    5.72141    -5.71524    -2.85509
        18    -8.60847    -2.83424    -2.87265
        18    -8.57507    0.00261    -0.05177
        18    -5.74692    -2.88169    -0.01589
        18    -5.71967    0.04199    -2.84195
        18    -2.87386    -2.86958    -2.82159
        18    -2.91339    0.03167    -0.01697
        18    0.01262    -2.85099    -0.03239
        18    -0.05961    0.00155    -2.81888
        18    2.86740    -2.79778    -2.85530
        18    2.90277    -0.02012    0.02486
        18    5.77223    -2.85705    -0.02006
        18    5.68326    0.00622    -2.83214
        18    -8.57718    2.80061    -2.85961
        18    -8.58807    5.71351    0.03531
        18    -5.69385    2.86499    0.02246
        18    -5.71182    5.77764    -2.88942
        18    -2.91697    2.84388    -2.87128
        18    -2.85683    5.71593    0.01068
        18    -0.03942    2.85673    0.01758
        18    -0.03689    5.72523    -2.86933
        18    2.93200    2.85713    -2.85043
        18    2.85376    5.70753    0.01997
        18    5.72949    2.91554    -0.00231
        18    5.74984    5.69698    -2.88498
        18    -8.56908    -8.55443    2.87784
        18    -8.60894    -5.76053    5.65383
        18    -5.76683    -8.65952    5.72510
        18    -5.78623    -5.74168    2.85080
        18    -2.87767    -8.61865    2.86926
        18    -2.84301    -5.71724    5.74945
        18    0.00961    -8.61515    5.75793
        18    -0.03328    -5.71933    2.86111
        18    2.82823    -8.60051    2.88738
        18    2.86974    -5.72259    5.73370
        18    5.75753    -8.57560    5.77408
        18    5.76427    -5.74399    2.83733
        18    -8.60936    -2.83771    2.85453
        18    -8.59264    -0.00914    5.70656
        18    -5.69679    -2.83697    5.72845
        18    -5.73537    -0.03329    2.87953
        18    -2.83755    -2.89394    2.85839
        18    -2.80565    0.00428    5.75733
        18    -0.00746    -2.86063    5.74923
        18    0.06287    -0.01715    2.86786
        18    2.87094    -2.83380    2.84815
        18    2.81962    -0.02069    5.71355
        18    5.75491    -2.83239    5.74678
        18    5.73859    0.04258    2.86721
        18    -8.61291    2.89090    2.82577
        18    -8.56422    5.73074    5.73809
        18    -5.71469    2.85300    5.73033
        18    -5.75617    5.72257    2.86915
        18    -2.89839    2.88735    2.86845
        18    -2.86048    5.75425    5.74713
        18    0.00622    2.86485    5.68730
        18    -0.02576    5.69890    2.84373
        18    2.87351    2.88478    2.85680
        18    2.88927    5.74360    5.73163
        18    5.72806    2.81219    5.72888
        18    5.73163    5.73169    2.85458
PRIMCOORD         3
       108         1
        18    -8.55289    -8.62804    -8.64019
        18    -8.54546    -5.71734    -5.74415
        18    -5.66425    -8.59564    -5.65182
        18    -5.64800    -5.73599    -8.51940
        18    -2.84335    -8.57584    -8.52604
        18    -2.83381    -5.67425    -5.69998
        18    -0.04561    -8.60820    -5.76027
        18    -0.03076    -5.74056    -8.58416
        18    2.85660    -8.57494    -8.57143
        18    2.80110    -5.77062    -5.75458
        18    5.68292    -8.62071    -5.75682
        18    5.72321    -5.76281    -8.56876
        18    -8.59586    -2.84956    -8.63939
        18    -8.56742    -0.05095    -5.70556
        18    -5.75103    -2.82878    -5.72362
        18    -5.74607    0.00039    -8.54248
        18    -2.88009    -2.83160    -8.58354
        18    -2.85335    -0.04546    -5.76879
        18    -0.01714    -2.82471    -5.72288
        18    -0.01701    -0.03696    -8.57685
        18    2.86340    -2.86248    -8.58586
        18    2.87377    -0.05672    -5.79602
        18    5.70832    -2.85278    -5.67569
        18    5.72022    -0.03237    -8.65165
        18    -8.56936    2.87002    -8.62503
        18    -8.62453    5.66118    -5.74591
        18    -5.70409    2.78510    -5.77736
        18    -5.75849    5.76959    -8.64727
        18    -2.84612    2.94166    -8.62397
        18    -2.84504    5.70477    -5.70776
        18    -0.04663    2.85514    -5.73398
        18    -0.01609    5.71655    -8.58701
        18    2.97089    2.92520    -8.58785
        18    2.78155    5.69831    -5.77933
        18    5.71587    2.90809    -5.66410
        18    5.68981    5.78115    -8.60611
        18    -8.57097    -8.53235    -2.84036
        18    -8.58085    -5.72487    -0.01828
        18    -5.69733    -8.70651    0.02176
        18    -5.79908    -5.71575    -2.89659
        18    -2.84847    -8.57664    -2.86545
        18    -2.88876    -5.62239    -0.04805
        18    0.00945    -8.63057    -0.02949
        18    0.01998    -5.77600    -2.81883
        18    2.88383    -8.59262    -2.91370
        18    2.87778    -5.68990    0.04530
        18    5.76291    -8.59218    0.00625
        18    5.71840    -5.70916    -2.85081
        18    -8.61711    -2.81955    -2.87712
        18    -8.56707    0.00394    -0.07754
        18    -5.75668    -2.89062    -0.02381
        18    -5.71579    0.06285    -2.83114
        18    -2.87895    -2.87247    -2.80064
        18    -2.93816    0.04741    -0.02535
        18    0.01891    -2.84463    -0.04851
        18    -0.08932    0.00236    -2.79654
        18    2.86920    -2.76494    -2.85111
        18    2.92225    -0.03009    0.03727
        18    5.79457    -2.85372    -0.03005
        18    5.66130    0.00934    -2.81641
        18    -8.57021    2.76919    -2.85757
        18    -8.58652    5.70659    0.05285
        18    -5.67717    2.86567    0.03366
        18    -5.70407    5.80259    -2.90222
        18    -2.94352    2.83402    -2.87507
        18    -2.85342    5.71018    0.01598
        18    -0.05907    2.85322    0.02633
        18    -0.05527    5.72410    -2.87212
        18    2.96595    2.85383    -2.84380
        18    2.84879    5.69763    0.02990
        18    5.73055    2.94135    -0.00346
        18    5.76104    5.68185    -2.89556
        18    -8.55811    -8.53622    2.88483
        18    -8.61778    -5.77698    5.61721
        18    -5.78641    -8.69353    5.72392
        18    -5.81549    -5.74878    2.84435
        18    -2.88463    -8.63235    2.87202
        18    -2.83273    -5.71221    5.76044
        18    0.01439    -8.62712    5.77315
        18    -0.04985    -5.71532    2.85981
        18    2.81056    -8.60518    2.89918
        18    2.87276    -5.72016    5.73682
        18    5.77252    -8.56787    5.79730
        18    5.78261    -5.75222    2.82418
        18    -8.61845    -2.82474    2.84993
        18    -8.59336    -0.01367    5.69615
        18    -5.68152    -2.82367    5.72896
        18    -5.73933    -0.04987    2.88739
        18    -2.82451    -2.90896    2.85573
        18    -2.77672    0.00644    5.77221
        18    -0.01116    -2.85913    5.76011
        18    0.09415    -0.02569    2.86988
        18    2.87459    -2.81893    2.84041
        18    2.79767    -0.03099    5.70666
        18    5.76858    -2.81681    5.75638
        18    5.74416    0.06380    2.86891
        18    -8.62374    2.90442    2.80688
        18    -8.55088    5.73235    5.74336
        18    -5.70835    2.84765    5.73177
        18    -5.77050    5.72012    2.87190
        18    -2.91567    2.89910    2.87086
        18    -2.85887    5.76763    5.75694
        18    0.00935    2.86544    5.66731
        18    -0.03861    5.68469    2.83379
        18    2.87841    2.89528    2.85335
        18    2.90201    5.75166    5.73372
        18    5.72839    2.78655    5.72958
        18    5.73374    5.73386    2.85008
PRIMCOORD         4
       108         1
        18    -8.54021    -8.64021    -8.65634
        18    -8.53037    -5.71399    -5.74973
        18    -5.64330    -8.59710    -5.62684
        18    -5.62167    -5.73884    -8.49564
        18    -2.83664    -8.57081    -8.50447
        18    -2.82388    -5.65657    -5.69078
        18    -0.06072    -8.61387    -5.77111
        18    -0.04095    -5.74486    -8.58183
        18    2.85417    -8.56960    -8.56493
        18    2.78031    -5.78487    -5.76356
        18    5.66821    -8.63053    -5.76655
        18    5.72185    -5.77449    -8.56131
        18    -8.59737    -2.84493    -8.65538
        18    -8.55967    -0.06780    -5.69833
        18    -5.75881    -2.81719    -5.72230
        18    -5.75222    0.00050    -8.52647
        18    -2.88551    -2.82099    -8.58100
        18    -2.84996    -0.06050    -5.78245
        18    -0.02281    -2.81183    -5.72131
        18    -0.02259    -0.04913    -8.57212
        18    2.86329    -2.86216    -8.58413
        18    2.87709    -0.07540    -5.81874
        18    5.70199    -2.84920    -5.65858
        18    5.71787    -0.04307    -8.67164
        18    -8.56221    2.87207    -8.63627
        18    -8.63552    5.63924    -5.75206
        18    -5.69635    2.75910    -5.79392
        18    -5.76870    5.78349    -8.66574
        18    -2.84032    2.96746    -8.63487
        18    -2.83890    5.69725    -5.70128
        18    -0.06208    2.85221    -5.73613
        18    -0.02138    5.71294    -8.58569
        18    3.00635    2.94550    -8.58681
        18    2.75429    5.68869    -5.79649
        18    5.71208    2.92268    -5.64322
        18    5.67742    5.79895    -8.61107
        18    -8.56433    -8.51293    -2.83264
        18    -8.57744    -5.72402    -0.02435
        18    -5.68736    -8.74468    0.02896
        18    -5.82277    -5.71184    -2.90746
        18    -2.84341    -8.57178    -2.86599
        18    -2.89711    -5.58772    -0.06395
        18    0.01256    -8.64364    -0.03923
        18    0.02664    -5.79206    -2.80398
        18    2.89049    -8.59321    -2.93026
        18    2.88247    -5.67746    0.06031
        18    5.77465    -8.59256    0.00831
        18    5.71539    -5.70308    -2.84656
        18    -8.62570    -2.80491    -2.88157
        18    -8.55910    0.00527    -0.10314
        18    -5.76645    -2.89947    -0.03170
        18    -5.71191    0.08354    -2.82042
        18    -2.88407    -2.87529    -2.77984
        18    -2.96284    0.06304    -0.03361
        18    0.02518    -2.83827    -0.06454
        18    -0.11891    0.00322    -2.77431
        18    2.87096    -2.73226    -2.84693
        18    2.94166    -0.03996    0.04965
        18    5.81684    -2.85039    -0.03998
        18    5.63949    0.01246    -2.80077
        18    -8.56325    2.73793    -2.85555
        18    -8.58496    5.69973    0.07027
        18    -5.66062    2.86640    0.04483
        18    -5.69636    5.82736    -2.91495
        18    -2.96998    2.82426    -2.87888
        18    -2.85003    5.70443    0.02124
        18    -0.07865    2.84969    0.03505
        18    -0.07358    5.72293    -2.87490
        18    2.99966    2.85055    -2.83718
        18    2.84382    5.68779    0.03975
        18    5.73162    2.96703    -0.00460
        18    5.77222    5.66685    -2.90607
        18    -8.54722    -8.51822    2.89173
        18    -8.62657    -5.79328    5.58083
        18    -5.80585    -8.72733    5.72272
        18    -5.84457    -5.75583    2.83789
        18    -2.89158    -8.64599    2.87479
        18    -2.82252    -5.70723    5.77140
        18    0.01914    -8.63904    5.78832
        18    -0.06634    -5.71134    2.85850
        18    2.79295    -8.60983    2.91095
        18    2.87577    -5.71772    5.73992
        18    5.78744    -8.56018    5.82039
        18    5.80085    -5.76040    2.81106
        18    -8.62751    -2.81182    2.84532
        18    -8.59403    -0.01814    5.68577
        18    -5.66629    -2.81043    5.72949
        18    -5.74325    -0.06637    2.89519
        18    -2.81154    -2.92386    2.85308
        18    -2.74789    0.00860    5.78703
        18    -0.01483    -2.85767    5.77095
        18    0.12526    -0.03419    2.87184
        18    2.87830    -2.80417    2.83272
        18    2.77584    -0.04123    5.69984
        18    5.78215    -2.80134    5.76587
        18    5.74971    0.08495    2.87057
        18    -8.63449    2.91784    2.78810
        18    -8.53769    5.73387    5.74855
        18    -5.70203    2.84231    5.73320
        18    -5.78476    5.71764    2.87466
        18    -2.93289    2.91079    2.87330
        18    -2.85729    5.78096    5.76670
        18    0.01250    2.86606    5.64741
        18    -0.05141    5.67055    2.82392
        18    2.88331    2.90574    2.84993
        18    2.91470    5.75969    5.73579
        18    5.72873    2.76104    5.73026
        18    5.73586    5.73608    2.84567
PRIMCOORD         5
       108         1
        18    -8.52759    -8.65226    -8.67230
        18    -8.51540    -5.71066    -5.75534
        18    -5.62245    -8.59851    -5.60206
        18    -5.59546    -5.74169    -8.47200
        18    -2.83002    -8.56584    -8.48300
        18    -2.81397    -5.63893    -5.68153
        18    -0.07576    -8.61952    -5.78184
        18    -0.05110    -5.74909    -8.57950
        18    2.85167    -8.56430    -8.55848
        18    2.75958    -5.79899    -5.77247
        18    5.65361    -8.64033    -5.77623
        18    5.72052    -5.78607    -8.55387
        18    -8.59884    -2.84037    -8.67128
        18    -8.55204    -0.08452    -5.69116
        18    -5.76652    -2.80566    -5.72093
        18    -5.75833    0.00059    -8.51064
        18    -2.89090    -2.81046    -8.57846
        18    -2.84663    -0.07545    -5.79598
        18    -0.02844    -2.79906    -5.71968
        18    -0.02809    -0.06117    -8.56743
        18    2.86317    -2.86193    -8.58244
        18    2.88040    -0.09389    -5.84136
        18    5.69570    -2.84567    -5.64159
        18    5.71554    -0.05369    -8.69147
        18    -8.55513    2.87408    -8.64746
        18    -8.64638    5.61742    -5.75822
        18    -5.68865    2.73328    -5.81042
        18    -5.77876    5.79723    -8.68399
        18    -2.83456    2.99310    -8.64573
        18    -2.83285    5.68975    -5.69487
        18    -0.07745    2.84922    -5.73826
        18    -0.02663    5.70936    -8.58441
        18    3.04161    2.96563    -8.58580
        18    2.72714    5.67916    -5.81350
        18    5.70834    2.93708    -5.62253
        18    5.66518    5.81666    -8.61600
        18    -8.55777    -8.49366    -2.82497
        18    -8.57403    -5.72315    -0.03042
        18    -5.67745    -8.78259    0.03612
        18    -5.84628    -5.70788    -2.91825
        18    -2.83835    -8.56689    -2.86647
        18    -2.90545    -5.55336    -0.07973
        18    0.01565    -8.65666    -0.04890
        18    0.03330    -5.80800    -2.78921
        18    2.89711    -8.59386    -2.94674
        18    2.88716    -5.66507    0.07525
        18    5.78634    -8.59298    0.01035
        18    5.71238    -5.69702    -2.84236
        18    -8.63422    -2.79036    -2.88602
        18    -8.55119    0.00660    -0.12853
        18    -5.77626    -2.90822    -0.03956
        18    -5.70805    0.10399    -2.80983
        18    -2.88921    -2.87799    -2.75925
        18    -2.98739    0.07852    -0.04171
        18    0.03144    -2.83193    -0.08043
        18    -0.14837    0.00413    -2.75222
        18    2.87265    -2.69978    -2.84276
        18    2.96099    -0.04968    0.06200
        18    5.83899    -2.84706    -0.04983
        18    5.61791    0.01559    -2.78522
        18    -8.55634    2.70690    -2.85357
        18    -8.58337    5.69296    0.08752
        18    -5.64425    2.86721    0.05595
        18    -5.68871    5.85188    -2.92758
        18    -2.99629    2.81462    -2.88270
        18    -2.84670    5.69866    0.02642
        18    -0.09814    2.84614    0.04373
        18    -0.09179    5.72171    -2.87766
        18    3.03305    2.84729    -2.83055
        18    2.83886    5.67803    0.04952
        18    5.73273    2.99253    -0.00574
        18    5.78339    5.65203    -2.91646
        18    -8.53645    -8.50053    2.89848
        18    -8.63528    -5.80939    5.54477
        18    -5.82508    -8.76082    5.72145
        18    -5.87339    -5.76279    2.83143
        18    -2.89851    -8.65956    2.87757
        18    -2.81239    -5.70233    5.78232
        18    0.02385    -8.65089    5.80345
        18    -0.08272    -5.70742    2.85718
        18    2.77543    -8.61447    2.92266
        18    2.87878    -5.71527    5.74301
        18    5.80225    -8.55256    5.84329
        18    5.81895    -5.76850    2.79798
        18    -8.63653    -2.79896    2.84069
        18    -8.59463    -0.02253    5.67544
        18    -5.65112    -2.79728    5.73003
        18    -5.74714    -0.08277    2.90291
        18    -2.79866    -2.93862    2.85043
        18    -2.71922    0.01078    5.80173
        18    -0.01847    -2.85627    5.78176
        18    0.15611    -0.04262    2.87371
        18    2.88209    -2.78956    2.82511
        18    2.75419    -0.05140    5.69312
        18    5.79560    -2.78600    5.77521
        18    5.75524    0.10598    2.87215
        18    -8.64516    2.93113    2.76946
        18    -8.52473    5.73527    5.75363
        18    -5.69574    2.83698    5.73462
        18    -5.79893    5.71513    2.87747
        18    -2.95003    2.92240    2.87580
        18    -2.85572    5.79423    5.77639
        18    0.01567    2.86672    5.62762
        18    -0.06415    5.65650    2.81414
        18    2.88821    2.91613    2.84653
        18    2.92734    5.76767    5.73784
        18    5.72909    2.73572    5.73089
        18    5.73798    5.73836    2.84136
PRIMCOORD         6
       108         1
        18    -8.51509    -8.66414    -8.68803
        18    -8.50059    -5.70734    -5.76096
        18    -5.60171    -8.59982    -5.57757
        18    -5.56937    -5.74452    -8.44848
        18    -2.82350    -8.56096    -8.46169
        18    -2.80409    -5.62134    -5.67223
        18    -0.09068    -8.62516    -5.79243
        18    -0.06117    -5.75324    -8.57716
        18    2.84911    -8.55907    -8.55212
        18    2.73893    -5.81297    -5.78130
        18    5.63914    -8.65010    -5.78584
        18    5.71923    -5.79753    -8.54644
        18    -8.60023    -2.83590    -8.68706
        18    -8.54457    -0.10109    -5.68405
        18    -5.77411    -2.79421    -5.71951
        18    -5.76438    0.00062    -8.49506
        18    -2.89625    -2.80004    -8.57592
        18    -2.84338    -0.09025    -5.80935
        18    -0.03402    -2.78642    -5.71799
        18    -0.03348    -0.07307    -8.56276
        18    2.86303    -2.86181    -8.58080
        18    2.88369    -0.11214    -5.86383
        18    5.68945    -2.84219    -5.62472
        18    5.71325    -0.06421    -8.71110
        18    -8.54814    2.87603    -8.65861
        18    -8.65709    5.59575    -5.76438
        18    -5.68099    2.70769    -5.82681
        18    -5.78863    5.81075    -8.70193
        18    -2.82888    3.01854    -8.65654
        18    -2.82689    5.68228    -5.68853
        18    -0.09275    2.84614    -5.74036
        18    -0.03180    5.70580    -8.58319
        18    3.07660    2.98554    -8.58485
        18    2.70013    5.66972    -5.83033
        18    5.70466    2.95123    -5.60211
        18    5.65313    5.83427    -8.62088
        18    -8.55129    -8.47458    -2.81736
        18    -8.57065    -5.72227    -0.03647
        18    -5.66763    -8.82020    0.04324
        18    -5.86955    -5.70386    -2.92894
        18    -2.83328    -8.56198    -2.86689
        18    -2.91378    -5.51940    -0.09536
        18    0.01872    -8.66962    -0.05847
        18    0.03997    -5.82381    -2.77455
        18    2.90368    -8.59460    -2.96312
        18    2.89185    -5.65273    0.09011
        18    5.79795    -8.59344    0.01235
        18    5.70937    -5.69097    -2.83820
        18    -8.64267    -2.77592    -2.89046
        18    -8.54333    0.00792    -0.15361
        18    -5.78611    -2.91682    -0.04736
        18    -5.70421    0.12411    -2.79941
        18    -2.89439    -2.88053    -2.73895
        18    -3.01180    0.09378    -0.04960
        18    0.03768    -2.82561    -0.09616
        18    -0.17768    0.00511    -2.73030
        18    2.87425    -2.66756    -2.83862
        18    2.98022    -0.05922    0.07432
        18    5.86100    -2.84374    -0.05960
        18    5.59664    0.01873    -2.76981
        18    -8.54949    2.67619    -2.85165
        18    -8.58175    5.68632    0.10453
        18    -5.62814    2.86813    0.06701
        18    -5.68113    5.87608    -2.94007
        18    -3.02241    2.80517    -2.88655
        18    -2.84341    5.69289    0.03152
        18    -0.11754    2.84255    0.05236
        18    -0.10989    5.72043    -2.88040
        18    3.06602    2.84407    -2.82392
        18    2.83389    5.66837    0.05918
        18    5.73387    3.01782    -0.00685
        18    5.79456    5.63744    -2.92671
        18    -8.52584    -8.48327    2.90500
        18    -8.64391    -5.82520    5.50915
        18    -5.84403    -8.79389    5.72008
        18    -5.90187    -5.76963    2.82494
        18    -2.90541    -8.67304    2.88035
        18    -2.80237    -5.69752    5.79321
        18    0.02851    -8.66267    5.81852
        18    -0.09895    -5.70357    2.85585
        18    2.75801    -8.61907    2.93430
        18    2.88178    -5.71281    5.74607
        18    5.81692    -8.54501    5.86596
        18    5.83687    -5.77651    2.78493
        18    -8.64550    -2.78618    2.83604
        18    -8.59515    -0.02682    5.66517
        18    -5.63602    -2.78424    5.73060
        18    -5.75097    -0.09904    2.91052
        18    -2.78590    -2.95317    2.84779
        18    -2.69074    0.01300    5.81631
        18    -0.02206    -2.85496    5.79251
        18    0.18665    -0.05096    2.87545
        18    2.88598    -2.77515    2.81759
        18    2.73277    -0.06148    5.68655
        18    5.80889    -2.77086    5.78435
        18    5.76075    0.12687    2.87363
        18    -8.65570    2.94423    2.75102
        18    -8.51207    5.73649    5.75856
        18    -5.68949    2.83167    5.73601
        18    -5.81300    5.71256    2.88032
        18    -2.96707    2.93390    2.87838
        18    -2.85417    5.80742    5.78598
        18    0.01885    2.86743    5.60796
        18    -0.07682    5.64257    2.80448
        18    2.89310    2.92644    2.84317
        18    2.93989    5.77560    5.73987
        18    5.72947    2.71064    5.73149