ANIMSTEPS       101
CRYSTAL
PRIMVEC
    17.18227     0.00000     0.00000
     0.00000    17.18227     0.00000
     0.00000     0.00000    17.18227
PRIMCOORD         1
       108         1
        18    -8.59113    -8.59113    -8.59113
        18    -8.59113    -5.72742    -5.72742
        18    -5.72742    -8.59113    -5.72742
        18    -5.72742    -5.72742    -8.59113
        18    -2.86371    -8.59113    -8.59113
        18    -2.86371    -5.72742    -5.72742
        18    0.00000    -8.59113    -5.72742
        18    0.00000    -5.72742    -8.59113
        18    2.86371    -8.59113    -8.59113
        18    2.86371    -5.72742    -5.72742
        18    5.72742    -8.59113    -5.72742
        18    5.72742    -5.72742    -8.59113
        18    -8.59113    -2.86371    -8.59113
        18    -8.59113    0.00000    -5.72742
        18    -5.72742    -2.86371    -5.72742
        18    -5.72742    0.00000    -8.59113
        18    -2.86371    -2.86371    -8.59113
        18    -2.86371    0.00000    -5.72742
        18    0.00000    -2.86371    -5.72742
        18    0.00000    0.00000    -8.59113
        18    2.86371    -2.86371    -8.59113
        18    2.86371    0.00000    -5.72742
        18    5.72742    -2.86371    -5.72742
        18    5.72742    0.00000    -8.59113
        18    -8.59113    2.86371    -8.59113
        18    -8.59113    5.72742    -5.72742
        18    -5.72742    2.86371    -5.72742
        18    -5.72742    5.72742    -8.59113
        18    -2.86371    2.86371    -8.59113
        18    -2.86371    5.72742    -5.72742
        18    0.00000    2.86371    -5.72742
        18    0.00000    5.72742    -8.59113
        18    2.86371    2.86371    -8.59113
        18    2.86371    5.72742    -5.72742
        18    5.72742    2.86371    -5.72742
        18    5.72742    5.72742    -8.59113
        18    -8.59113    -8.59113    -2.86371
        18    -8.59113    -5.72742    0.00000
        18    -5.72742    -8.59113    0.00000
        18    -5.72742    -5.72742    -2.86371
        18    -2.86371    -8.59113    -2.86371
        18    -2.86371    -5.72742    0.00000
        18    0.00000    -8.59113    0.00000
        18    0.00000    -5.72742    -2.86371
        18    2.86371    -8.59113    -2.86371
        18    2.86371    -5.72742    0.00000
        18    5.72742    -8.59113    0.00000
        18    5.72742    -5.72742    -2.86371
        18    -8.59113    -2.86371    -2.86371
        18    -8.59113    0.00000    0.00000
        18    -5.72742    -2.86371    0.00000
        18    -5.72742    0.00000    -2.86371
        18    -2.86371    -2.86371    -2.86371
        18    -2.86371    0.00000    0.00000
        18    0.00000    -2.86371    0.00000
        18    0.00000    0.00000    -2.86371
        18    2.86371    -2.86371    -2.86371
        18    2.86371    0.00000    0.00000
        18    5.72742    -2.86371    0.00000
        18    5.72742    0.00000    -2.86371
        18    -8.59113    2.86371    -2.86371
        18    -8.59113    5.72742    0.00000
        18    -5.72742    2.86371    0.00000
        18    -5.72742    5.72742    -2.86371
        18    -2.86371    2.86371    -2.86371
        18    -2.86371    5.72742    0.00000
        18    0.00000    2.86371    0.00000
        18    0.00000    5.72742    -2.86371
        18    2.86371    2.86371    -2.86371
        18    2.86371    5.72742    0.00000
        18    5.72742    2.86371    0.00000
        18    5.72742    5.72742    -2.86371
        18    -8.59113    -8.59113    2.86371
        18    -8.59113    -5.72742    5.72742
        18    -5.72742    -8.59113    5.72742
        18    -5.72742    -5.72742    2.86371
        18    -2.86371    -8.59113    2.86371
        18    -2.86371    -5.72742    5.72742
        18    0.00000    -8.59113    5.72742
        18    0.00000    -5.72742    2.86371
        18    2.86371    -8.59113    2.86371
        18    2.86371    -5.72742    5.72742
        18    5.72742    -8.59113    5.72742
        18    5.72742    -5.72742    2.86371
        18    -8.59113    -2.86371    2.86371
        18    -8.59113    0.00000    5.72742
        18    -5.72742    -2.86371    5.72742
        18    -5.72742    0.00000    2.86371
        18    -2.86371    -2.86371    2.86371
        18    -2.86371    0.00000    5.72742
        18    0.00000    -2.86371    5.72742
        18    0.00000    0.00000    2.86371
        18    2.86371    -2.86371    2.86371
        18    2.86371    0.00000    5.72742
        18    5.72742    -2.86371    5.72742
        18    5.72742    0.00000    2.86371
        18    -8.59113    2.86371    2.86371
        18    -8.59113    5.72742    5.72742
        18    -5.72742    2.86371    5.72742
        18    -5.72742    5.72742    2.86371
        18    -2.86371    2.86371    2.86371
        18    -2.86371    5.72742    5.72742
        18    0.00000    2.86371    5.72742
        18    0.00000    5.72742    2.86371
        18    2.86371    2.86371    2.86371
        18    2.86371    5.72742    5.72742
        18    5.72742    2.86371    5.72742
        18    5.72742    5.72742    2.86371
PRIMCOORD         2
       108         1
        18    -8.60712    -8.60520    -8.61484
        18    -8.58546    -5.74557    -5.73640
        18    -5.74090    -8.57339    -5.73903
        18    -5.73366    -5.72993    -8.59543
        18    -2.84969    -8.58542    -8.60610
        18    -2.87250    -5.71596    -5.71582
        18    0.00235    -8.58042    -5.73219
        18    0.01680    -5.73629    -8.59701
        18    2.85511    -8.58550    -8.59147
        18    2.86727    -5.71391    -5.74039
        18    5.73442    -8.57501    -5.75011
        18    5.69550    -5.70530    -8.58186
        18    -8.59164    -2.85116    -8.58013
        18    -8.59499    -0.02766    -5.72188
        18    -5.73396    -2.86213    -5.74377
        18    -5.75096    -0.01662    -8.58249
        18    -2.86937    -2.83998    -8.61158
        18    -2.84009    -0.00047    -5.75111
        18    -0.00225    -2.88766    -5.71677
        18    0.00074    0.00741    -8.59168
        18    2.85870    -2.87607    -8.60252
        18    2.85453    0.01906    -5.74717
        18    5.71835    -2.85709    -5.71714
        18    5.72541    0.00231    -8.59464
        18    -8.59354    2.85739    -8.59047
        18    -8.60754    5.69870    -5.74017
        18    -5.70345    2.86333    -5.74126
        18    -5.73290    5.73690    -8.59040
        18    -2.86427    2.87193    -8.59108
        18    -2.83876    5.73235    -5.71578
        18    -0.01068    2.85860    -5.71874
        18    -0.00236    5.71363    -8.57606
        18    2.85554    2.87360    -8.59407
        18    2.87870    5.71433    -5.71468
        18    5.73791    2.86840    -5.72624
        18    5.73397    5.72604    -8.59518
        18    -8.58461    -8.58223    -2.87064
        18    -8.58501    -5.73240    -0.01535
        18    -5.72552    -8.59347    -0.01030
        18    -5.70903    -5.72901    -2.86909
        18    -2.86072    -8.59508    -2.85167
        18    -2.85295    -5.71843    0.00614
        18    -0.01281    -8.59730    -0.00500
        18    -0.00528    -5.71895    -2.87321
        18    2.87558    -8.59578    -2.87759
        18    2.86007    -5.74596    -0.01899
        18    5.71133    -8.59739    -0.00283
        18    5.73537    -5.73696    -2.85347
        18    -8.57849    -2.85756    -2.85411
        18    -8.58498    -0.00533    0.00011
        18    -5.73768    -2.84334    0.00532
        18    -5.74090    -0.00550    -2.85015
        18    -2.83533    -2.87402    -2.86880
        18    -2.87630    0.01646    -0.00537
        18    -0.01752    -2.87972    0.01462
        18    0.00469    0.01238    -2.84066
        18    2.85873    -2.87446    -2.86965
        18    2.88400    0.00890    0.01178
        18    5.75429    -2.87460    0.00556
        18    5.73065    -0.00276    -2.82771
        18    -8.58682    2.86538    -2.85822
        18    -8.59831    5.72122    -0.01822
        18    -5.73618    2.86829    0.00767
        18    -5.72622    5.74159    -2.87948
        18    -2.86548    2.85678    -2.86428
        18    -2.86200    5.74275    -0.00535
        18    0.00635    2.87371    0.00722
        18    0.00719    5.72959    -2.88277
        18    2.86187    2.88535    -2.89147
        18    2.87766    5.72586    0.00807
        18    5.71629    2.83729    0.00800
        18    5.72844    5.75877    -2.86250
        18    -8.59601    -8.57914    2.85586
        18    -8.58309    -5.73904    5.72765
        18    -5.75348    -8.58071    5.72151
        18    -5.73261    -5.72980    2.84400
        18    -2.86782    -8.58437    2.84470
        18    -2.87375    -5.71334    5.74653
        18    0.00536    -8.60636    5.71718
        18    -0.00833    -5.73903    2.88097
        18    2.86530    -8.56491    2.85782
        18    2.87225    -5.71558    5.73692
        18    5.71115    -8.60468    5.75294
        18    5.73693    -5.75035    2.88696
        18    -8.59093    -2.85358    2.86568
        18    -8.58457    -0.01114    5.75539
        18    -5.73702    -2.84954    5.74201
        18    -5.72770    -0.02226    2.86125
        18    -2.87815    -2.88914    2.83919
        18    -2.85721    -0.01294    5.74686
        18    -0.00677    -2.86745    5.73014
        18    0.02883    -0.02416    2.88253
        18    2.86159    -2.85008    2.85940
        18    2.86631    -0.00176    5.71462
        18    5.74166    -2.85803    5.73553
        18    5.72698    0.00351    2.85239
        18    -8.58259    2.84898    2.88556
        18    -8.59605    5.72480    5.72720
        18    -5.73004    2.85691    5.72693
        18    -5.72855    5.70016    2.87709
        18    -2.85200    2.88135    2.84854
        18    -2.87830    5.73302    5.73634
        18    0.00034    2.85727    5.74410
        18    -0.01441    5.71824    2.85269
        18    2.86644    2.89196    2.85757
        18    2.87556    5.73793    5.72594
        18    5.70237    2.87583    5.75694
        18    5.73829    5.71970    2.87068
PRIMCOORD         3
       108         1
        18    -8.62309    -8.61923    -8.63852
        18    -8.57980    -5.76367    -5.74537
        18    -5.75435    -8.55569    -5.75063
        18    -5.73990    -5.73243    -8.59972
        18    -2.83569    -8.57970    -8.62103
        18    -2.88128    -5.70452    -5.70425
        18    0.00471    -8.56971    -5.73695
        18    0.03357    -5.74514    -8.60288
        18    2.84652    -8.57989    -8.59180
        18    2.87083    -5.70041    -5.75334
        18    5.74141    -8.55891    -5.77278
        18    5.66364    -5.68320    -8.57261
        18    -8.59215    -2.83865    -8.56912
        18    -8.59885    -0.05527    -5.71633
        18    -5.74047    -2.86056    -5.76009
        18    -5.77446    -0.03320    -8.57385
        18    -2.87501    -2.81630    -8.63198
        18    -2.81651    -0.00095    -5.77475
        18    -0.00449    -2.91156    -5.70616
        18    0.00149    0.01480    -8.59223
        18    2.85368    -2.88838    -8.61390
        18    2.84536    0.03810    -5.76689
        18    5.70928    -2.85047    -5.70686
        18    5.72340    0.00462    -8.59813
        18    -8.59593    2.85108    -8.58980
        18    -8.62393    5.67002    -5.75290
        18    -5.67952    2.86294    -5.75508
        18    -5.73837    5.74637    -8.58967
        18    -2.86483    2.88014    -8.59103
        18    -2.81384    5.73728    -5.70417
        18    -0.02134    2.85350    -5.71007
        18    -0.00470    5.69986    -8.56100
        18    2.84738    2.88349    -8.59699
        18    2.89368    5.70126    -5.70198
        18    5.74839    2.87306    -5.72505
        18    5.74050    5.72464    -8.59921
        18    -8.57809    -8.57333    -2.87757
        18    -8.57888    -5.73738    -0.03069
        18    -5.72363    -8.59580    -0.02058
        18    -5.69066    -5.73059    -2.87446
        18    -2.85773    -8.59901    -2.83966
        18    -2.84222    -5.70946    0.01226
        18    -0.02560    -8.60345    -0.01000
        18    -0.01055    -5.71051    -2.88269
        18    2.88743    -8.60041    -2.89148
        18    2.85643    -5.76446    -0.03795
        18    5.69528    -8.60363    -0.00566
        18    5.74331    -5.74648    -2.84326
        18    -8.56586    -2.85144    -2.84453
        18    -8.57884    -0.01063    0.00022
        18    -5.74791    -2.82301    0.01063
        18    -5.75434    -0.01099    -2.83662
        18    -2.80700    -2.88430    -2.87388
        18    -2.88887    0.03290    -0.01071
        18    -0.03500    -2.89571    0.02923
        18    0.00938    0.02474    -2.81763
        18    2.85375    -2.88519    -2.87556
        18    2.90425    0.01779    0.02355
        18    5.78111    -2.88549    0.01112
        18    5.73387    -0.00553    -2.79177
        18    -8.58251    2.86704    -2.85275
        18    -8.60547    5.71502    -0.03641
        18    -5.74492    2.87287    0.01532
        18    -5.72502    5.75573    -2.89524
        18    -2.86726    2.84987    -2.86485
        18    -2.86030    5.75804    -0.01070
        18    0.01270    2.88369    0.01443
        18    0.01439    5.73175    -2.90179
        18    2.86004    2.90697    -2.91917
        18    2.89158    5.72432    0.01613
        18    5.70518    2.81092    0.01598
        18    5.72946    5.79007    -2.86129
        18    -8.60088    -8.56719    2.84800
        18    -8.57507    -5.75064    5.72788
        18    -5.77950    -8.57030    5.71558
        18    -5.73779    -5.73217    2.82432
        18    -2.87193    -8.57761    2.82572
        18    -2.88378    -5.69928    5.76560
        18    0.01072    -8.62156    5.70695
        18    -0.01664    -5.75061    2.89822
        18    2.86688    -8.53874    2.85194
        18    2.88077    -5.70376    5.74640
        18    5.69489    -8.61820    5.77842
        18    5.74642    -5.77323    2.91018
        18    -8.59072    -2.84347    2.86765
        18    -8.57803    -0.02225    5.78332
        18    -5.74661    -2.83541    5.75657
        18    -5.72796    -0.04448    2.85880
        18    -2.89257    -2.91452    2.81472
        18    -2.85072    -0.02585    5.76625
        18    -0.01352    -2.87119    5.73285
        18    0.05761    -0.04828    2.90132
        18    2.85950    -2.83649    2.85509
        18    2.86892    -0.00351    5.70183
        18    5.75588    -2.85235    5.74362
        18    5.72656    0.00703    2.84112
        18    -8.57408    2.83424    2.90740
        18    -8.60096    5.72217    5.72698
        18    -5.73264    2.85010    5.72646
        18    -5.72969    5.67294    2.89044
        18    -2.84030    2.89895    2.83341
        18    -2.89288    5.73860    5.74523
        18    0.00067    2.85084    5.76075
        18    -0.02879    5.70909    2.84170
        18    2.86916    2.92016    2.85146
        18    2.88737    5.74843    5.72445
        18    5.67736    2.88792    5.78641
        18    5.74915    5.71199    2.87764
PRIMCOORD         4
       108         1
        18    -8.63903    -8.63323    -8.66212
        18    -8.57418    -5.78169    -5.75433
        18    -5.76774    -8.53806    -5.76224
        18    -5.74613    -5.73491    -8.60400
        18    -2.82172    -8.57399    -8.63592
        18    -2.89003    -5.69312    -5.69276
        18    0.00707    -8.55901    -5.74170
        18    0.05028    -5.75395    -8.60874
        18    2.83794    -8.57431    -8.59211
        18    2.87437    -5.68697    -5.76622
        18    5.74837    -8.54286    -5.79542
        18    5.63190    -5.66116    -8.56340
        18    -8.59271    -2.82623    -8.55814
        18    -8.60273    -0.08277    -5.71076
        18    -5.74694    -2.85901    -5.77635
        18    -5.79788    -0.04970    -8.56521
        18    -2.88063    -2.79271    -8.65228
        18    -2.79299    -0.00145    -5.79832
        18    -0.00670    -2.93538    -5.69563
        18    0.00227    0.02216    -8.59279
        18    2.84866    -2.90060    -8.62524
        18    2.83620    0.05708    -5.78654
        18    5.70023    -2.84387    -5.69659
        18    5.72136    0.00692    -8.60159
        18    -8.59832    2.84475    -8.58914
        18    -8.64025    5.64145    -5.76560
        18    -5.65564    2.86253    -5.76885
        18    -5.74384    5.75583    -8.58894
        18    -2.86540    2.88831    -8.59098
        18    -2.78901    5.74222    -5.69259
        18    -0.03198    2.84842    -5.70143
        18    -0.00702    5.68613    -8.54597
        18    2.83923    2.89336    -8.59988
        18    2.90863    5.68827    -5.68936
        18    5.75884    2.87767    -5.72386
        18    5.74698    5.72325    -8.60321
        18    -8.57159    -8.56447    -2.88451
        18    -8.57276    -5.74234    -0.04598
        18    -5.72174    -8.59814    -0.03085
        18    -5.67233    -5.73213    -2.87980
        18    -2.85474    -8.60291    -2.82771
        18    -2.83153    -5.70054    0.01831
        18    -0.03831    -8.60959    -0.01501
        18    -0.01579    -5.70215    -2.89214
        18    2.89922    -8.60501    -2.90535
        18    2.85278    -5.78291    -0.05686
        18    5.67929    -8.60985    -0.00846
        18    5.75123    -5.75598    -2.83311
        18    -8.55326    -2.84538    -2.83499
        18    -8.57271    -0.01591    0.00038
        18    -5.75810    -2.80277    0.01589
        18    -5.76771    -0.01647    -2.82317
        18    -2.77878    -2.89450    -2.87892
        18    -2.90139    0.04928    -0.01603
        18    -0.05241    -2.91164    0.04380
        18    0.01408    0.03706    -2.79465
        18    2.84878    -2.89588    -2.88143
        18    2.92441    0.02664    0.03528
        18    5.80786    -2.89638    0.01669
        18    5.73709    -0.00830    -2.75593
        18    -8.57822    2.86868    -2.84730
        18    -8.61263    5.70884    -0.05453
        18    -5.75365    2.87744    0.02296
        18    -5.72382    5.76983    -2.91099
        18    -2.86904    2.84300    -2.86540
        18    -2.85862    5.77327    -0.01607
        18    0.01906    2.89366    0.02159
        18    0.02158    5.73392    -2.92074
        18    2.85824    2.92852    -2.94676
        18    2.90546    5.72279    0.02414
        18    5.69413    2.78467    0.02394
        18    5.73050    5.82127    -2.86011
        18    -8.60575    -8.55531    2.84015
        18    -8.56709    -5.76217    5.72814
        18    -5.80543    -8.55993    5.70965
        18    -5.74298    -5.73451    2.80468
        18    -2.87606    -8.57087    2.80681
        18    -2.89381    -5.68525    5.78460
        18    0.01606    -8.63674    5.69674
        18    -0.02493    -5.76216    2.91544
        18    2.86845    -8.51267    2.84609
        18    2.88926    -5.69196    5.75584
        18    5.67867    -8.63166    5.80383
        18    5.75590    -5.79604    2.93335
        18    -8.59051    -2.83341    2.86963
        18    -8.57154    -0.03331    5.81116
        18    -5.75619    -2.82133    5.77109
        18    -5.72821    -0.06663    2.85639
        18    -2.90697    -2.93983    2.79036
        18    -2.84427    -0.03871    5.78556
        18    -0.02026    -2.87493    5.73555
        18    0.08628    -0.07231    2.92005
        18    2.85745    -2.82301    2.85080
        18    2.87154    -0.00525    5.68911
        18    5.77007    -2.84668    5.75169
        18    5.72615    0.01053    2.82991
        18    -8.56561    2.81950    2.92919
        18    -8.60586    5.71954    5.72676
        18    -5.73522    2.84326    5.72602
        18    -5.73084    5.64582    2.90375
        18    -2.82863    2.91647    2.81833
        18    -2.90742    5.74419    5.75410
        18    0.00101    2.84445    5.77733
        18    -0.04312    5.70000    2.83075
        18    2.87187    2.94828    2.84541
        18    2.89911    5.75892    5.72296
        18    5.65242    2.89997    5.81579
        18    5.76000    5.70430    2.88458
PRIMCOORD         5
       108         1
        18    -8.65493    -8.64715    -8.68562
        18    -8.56861    -5.79956    -5.76328
        18    -5.78106    -8.52053    -5.77383
        18    -5.75234    -5.73736    -8.60828
        18    -2.80782    -8.56830    -8.65074
        18    -2.89875    -5.68179    -5.68140
        18    0.00945    -8.54832    -5.74642
        18    0.06689    -5.76271    -8.61460
        18    2.82939    -8.56879    -8.59240
        18    2.87789    -5.67360    -5.77901
        18    5.75531    -8.52688    -5.81799
        18    5.60036    -5.63919    -8.55425
        18    -8.59334    -2.81395    -8.54718
        18    -8.60662    -0.11012    -5.70516
        18    -5.75334    -2.85749    -5.79251
        18    -5.82117    -0.06608    -8.55658
        18    -2.88623    -2.76926    -8.67243
        18    -2.76957    -0.00199    -5.82178
        18    -0.00888    -2.95906    -5.68522
        18    0.00310    0.02948    -8.59337
        18    2.84360    -2.91267    -8.63654
        18    2.82708    0.07597    -5.80612
        18    5.69121    -2.83727    -5.68632
        18    5.71931    0.00921    -8.60501
        18    -8.60068    2.83843    -8.58848
        18    -8.65649    5.61304    -5.77825
        18    -5.63185    2.86210    -5.78258
        18    -5.74929    5.76527    -8.58821
        18    -2.86598    2.89645    -8.59095
        18    -2.76430    5.74718    -5.68108
        18    -0.04257    2.84336    -5.69284
        18    -0.00930    5.67249    -8.53098
        18    2.83110    2.90322    -8.60271
        18    2.92355    5.67538    -5.67689
        18    5.76923    2.88220    -5.72267
        18    5.75339    5.72184    -8.60714
        18    -8.56512    -8.55566    -2.89145
        18    -8.56663    -5.74730    -0.06122
        18    -5.71988    -8.60048    -0.04108
        18    -5.65406    -5.73364    -2.88509
        18    -2.85175    -8.60674    -2.81584
        18    -2.82091    -5.69172    0.02428
        18    -0.05093    -8.61570    -0.02002
        18    -0.02097    -5.69391    -2.90153
        18    2.91094    -8.60957    -2.91922
        18    2.84911    -5.80127    -0.07570
        18    5.66340    -8.61603    -0.01124
        18    5.75914    -5.76544    -2.82305
        18    -8.54071    -2.83941    -2.82550
        18    -8.56661    -0.02112    0.00058
        18    -5.76823    -2.78267    0.02109
        18    -5.78100    -0.02190    -2.80981
        18    -2.75071    -2.90459    -2.88391
        18    -2.91385    0.06559    -0.02129
        18    -0.06969    -2.92751    0.05833
        18    0.01881    0.04932    -2.77174
        18    2.84383    -2.90651    -2.88724
        18    2.94443    0.03542    0.04697
        18    5.83451    -2.90727    0.02226
        18    5.74029    -0.01108    -2.72027
        18    -8.57395    2.87029    -2.84189
        18    -8.61977    5.70269    -0.07257
        18    -5.76235    2.88200    0.03056
        18    -5.72263    5.78388    -2.92673
        18    -2.87082    2.83618    -2.86594
        18    -2.85698    5.78840    -0.02147
        18    0.02542    2.90360    0.02869
        18    0.02877    5.73610    -2.93958
        18    2.85649    2.94996    -2.97419
        18    2.91928    5.72130    0.03209
        18    5.68319    2.75862    0.03186
        18    5.73157    5.85235    -2.85896
        18    -8.61060    -8.54354    2.83231
        18    -8.55920    -5.77360    5.72842
        18    -5.83124    -8.54962    5.70371
        18    -5.74817    -5.73682    2.78511
        18    -2.88023    -8.56416    2.78801
        18    -2.90383    -5.67128    5.80350
        18    0.02139    -8.65188    5.68656
        18    -0.03319    -5.77366    2.93262
        18    2.87000    -8.48673    2.84028
        18    2.89771    -5.68021    5.76520
        18    5.66250    -8.64504    5.82913
        18    5.76535    -5.81872    2.95643
        18    -8.59030    -2.82342    2.87165
        18    -8.56511    -0.04429    5.83888
        18    -5.76576    -2.80736    5.78552
        18    -5.72844    -0.08865    2.85404
        18    -2.92134    -2.96501    2.76617
        18    -2.83787    -0.05146    5.80473
        18    -0.02696    -2.87869    5.73824
        18    0.11478    -0.09620    2.93868
        18    2.85549    -2.80970    2.84651
        18    2.87418    -0.00698    5.67648
        18    5.78423    -2.84103    5.75971
        18    5.72578    0.01403    2.81883
        18    -8.55722    2.80476    2.95093
        18    -8.61076    5.71688    5.72654
        18    -5.73776    2.83639    5.72563
        18    -5.73201    5.61885    2.91699
        18    -2.81701    2.93386    2.80335
        18    -2.92192    5.74975    5.76292
        18    0.00135    2.83811    5.79382
        18    -0.05737    5.69101    2.81987
        18    2.87456    2.97628    2.83944
        18    2.91075    5.76937    5.72148
        18    5.62761    2.91194    5.84504
        18    5.77084    5.69666    2.89150
PRIMCOORD         6
       108         1
        18    -8.67076    -8.66099    -8.70896
        18    -8.56312    -5.81724    -5.77223
        18    -5.79427    -8.50316    -5.78541
        18    -5.75855    -5.73976    -8.61253
        18    -2.79399    -8.56262    -8.66545
        18    -2.90742    -5.67055    -5.67021
        18    0.01184    -8.53765    -5.75110
        18    0.08337    -5.77140    -8.62046
        18    2.82088    -8.56336    -8.59265
        18    2.88137    -5.66034    -5.79167
        18    5.76218    -8.51100    -5.84049
        18    5.56909    -5.61735    -8.54518
        18    -8.59406    -2.80187    -8.53625
        18    -8.61053    -0.13725    -5.69953
        18    -5.75966    -2.85603    -5.80856
        18    -5.84427    -0.08226    -8.54794
        18    -2.89179    -2.74602    -8.69235
        18    -2.74629    -0.00257    -5.84510
        18    -0.01101    -2.98255    -5.67499
        18    0.00399    0.03674    -8.59398
        18    2.83850    -2.92452    -8.64777
        18    2.81799    0.09476    -5.82558
        18    5.68222    -2.83070    -5.67607
        18    5.71721    0.01148    -8.60838
        18    -8.60303    2.83209    -8.58783
        18    -8.67258    5.58484    -5.79083
        18    -5.60819    2.86165    -5.79623
        18    -5.75473    5.77469    -8.58748
        18    -2.86656    2.90455    -8.59093
        18    -2.73975    5.75216    -5.66965
        18    -0.05310    2.83834    -5.68432
        18    -0.01154    5.65894    -8.51605
        18    2.82299    2.91305    -8.60548
        18    2.93841    5.66266    -5.66464
        18    5.77955    2.88661    -5.72148
        18    5.75970    5.72042    -8.61099
        18    -8.55867    -8.54691    -2.89839
        18    -8.56049    -5.75224    -0.07637
        18    -5.71804    -8.60282    -0.05127
        18    -5.63587    -5.73508    -2.89032
        18    -2.84876    -8.61049    -2.80408
        18    -2.81041    -5.68305    0.03011
        18    -0.06342    -8.62176    -0.02503
        18    -0.02609    -5.68585    -2.91083
        18    2.92255    -8.61406    -2.93310
        18    2.84543    -5.81952    -0.09447
        18    5.64765    -8.62215    -0.01396
        18    5.76703    -5.77485    -2.81310
        18    -8.52823    -2.83355    -2.81609
        18    -8.56055    -0.02626    0.00085
        18    -5.77829    -2.76276    0.02621
        18    -5.79417    -0.02728    -2.79658
        18    -2.72286    -2.91453    -2.88882
        18    -2.92625    0.08180    -0.02650
        18    -0.08681    -2.94327    0.07278
        18    0.02356    0.06152    -2.74892
        18    2.83891    -2.91706    -2.89296
        18    2.96424    0.04412    0.05861
        18    5.86102    -2.91817    0.02784
        18    5.74349    -0.01389    -2.68485
        18    -8.56970    2.87186    -2.83653
        18    -8.62689    5.69659    -0.09048
        18    -5.77101    2.88654    0.03813
        18    -5.72144    5.79785    -2.94245
        18    -2.87261    2.82943    -2.86647
        18    -2.85540    5.80340    -0.02689
        18    0.03181    2.91351    0.03570
        18    0.03596    5.73830    -2.95827
        18    2.85479    2.97124    -3.00138
        18    2.93301    5.71986    0.03996
        18    5.67240    2.73284    0.03973
        18    5.73268    5.88324    -2.85788
        18    -8.61542    -8.53191    2.82446
        18    -8.55141    -5.78489    5.72873
        18    -5.85686    -8.53942    5.69775
        18    -5.75338    -5.73910    2.76561
        18    -2.88443    -8.55750    2.76934
        18    -2.91384    -5.65737    5.82225
        18    0.02669    -8.66697    5.67642
        18    -0.04141    -5.78509    2.94974
        18    2.87152    -8.46098    2.83453
        18    2.90610    -5.66854    5.77445
        18    5.64641    -8.65829    5.85427
        18    5.77476    -5.84124    2.97941
        18    -8.59009    -2.81352    2.87370
        18    -8.55878    -0.05517    5.86641
        18    -5.77530    -2.79353    5.79986
        18    -5.72863    -0.11051    2.85177
        18    -2.93565    -2.99003    2.74222
        18    -2.83153    -0.06406    5.82371
        18    -0.03361    -2.88248    5.74092
        18    0.14303    -0.11989    2.95718
        18    2.85364    -2.79660    2.84224
        18    2.87688    -0.00868    5.66398
        18    5.79832    -2.83541    5.76768
        18    5.72547    0.01749    2.80791
        18    -8.54893    2.79001    2.97260
        18    -8.61565    5.71420    5.72632
        18    -5.74024    2.82947    5.72532
        18    -5.73321    5.59208    2.93015
        18    -2.80547    2.95110    2.78847
        18    -2.93636    5.75530    5.77168
        18    0.00169    2.83183    5.81018
        18    -0.07152    5.68216    2.80908
        18    2.87722    3.00411    2.83359
        18    2.92225    5.77978    5.71999
        18    5.60294    2.92382    5.87409